# vtk DataFile Version 3.0
vtk output
ASCII
DATASET STRUCTURED_GRID
DIMENSIONS 57 33 1
POINTS 1881 float
1.88913 -4.05869 25.6256 2.15516 -4.05449 25.7072 2.42151 -4.05024 25.7879 
2.68805 -4.05007 25.8691 2.95464 -4.07707 25.9521 3.22106 -4.06223 26.0381 
3.48709 -4.07845 26.1281 3.75252 -4.09979 26.2229 4.01712 -4.12375 26.323 
4.28069 -4.14859 26.4289 4.54302 -4.13222 26.5407 4.80393 -4.14918 26.6586 
5.06326 -4.17365 26.7826 5.32089 -4.19812 26.9125 5.57672 -4.22259 27.048 
5.83068 -4.24567 27.1888 6.08275 -4.27061 27.3344 6.33294 -4.30192 27.4842 
6.58131 -4.33322 27.6379 6.82798 -4.36565 27.7949 7.0731 -4.41879 27.9548 
7.31688 -4.40827 28.1175 7.55952 -4.43144 28.2826 7.80121 -4.46245 28.4498 
8.04208 -4.49347 28.6187 8.28221 -4.52448 28.7891 8.52165 -4.55673 28.9606 
8.76052 -4.59357 29.1332 8.99906 -4.63545 29.3067 9.23767 -4.62684 29.4811 
9.4769 -4.65306 29.6562 9.71735 -4.68537 29.8314 9.95963 -4.71768 30.0059 
10.2043 -4.74999 30.1789 10.4516 -4.7823 30.3495 10.7015 -4.81461 30.517 
10.9536 -4.84681 30.6805 11.2067 -4.88004 30.8396 11.4598 -4.9054 30.9939 
11.7125 -4.95302 31.1441 11.9653 -4.93852 31.2911 12.2202 -4.95141 31.4359 
12.4787 -4.98092 31.5777 12.7423 -5.01101 31.7147 13.0119 -5.04741 31.8447 
13.2879 -5.07718 31.966 13.5695 -5.09664 32.0775 13.8553 -5.1139 32.1787 
14.1433 -5.13116 32.2691 14.4318 -5.15419 32.3492 14.7205 -5.13334 32.4214 
15.0112 -5.15156 32.4898 15.3053 -5.16489 32.5556 15.6029 -5.17823 32.6178 
15.9036 -5.19156 32.6757 16.2063 -5.19212 32.7296 16.51 -5.19212 32.7818 
1.88913 -3.80692 25.6642 2.15687 -3.80298 25.7465 2.42491 -3.799 25.8279 
2.69307 -3.79883 25.9099 2.96115 -3.82416 25.9936 3.22894 -3.81024 26.0804 
3.49618 -3.82545 26.1712 3.76268 -3.84547 26.2668 4.02822 -3.86795 26.3678 
4.29262 -3.89125 26.4746 4.55571 -3.87589 26.5873 4.81736 -3.8918 26.7062 
5.07744 -3.91475 26.8311 5.33586 -3.9377 26.9621 5.59254 -3.96065 27.0988 
5.84744 -3.9823 27.2407 6.10052 -4.0057 27.3876 6.35178 -4.03506 27.5387 
6.60126 -4.06442 27.6937 6.84905 -4.09484 27.852 7.0953 -4.14468 28.0133 
7.34022 -4.13481 28.1773 7.58402 -4.15655 28.3437 7.8269 -4.18564 28.5122 
8.06901 -4.21473 28.6825 8.31046 -4.24381 28.8542 8.55139 -4.27407 29.0271 
8.79196 -4.30862 29.2013 9.03249 -4.3479 29.3766 9.27338 -4.33983 29.553 
9.51518 -4.36442 29.7301 9.75842 -4.39472 29.9072 10.0036 -4.42503 30.0835 
10.2509 -4.45533 30.2579 10.5007 -4.48564 30.4294 10.7525 -4.51595 30.5972 
11.0059 -4.54615 30.7607 11.2601 -4.57732 30.9194 11.5142 -4.6011 31.0736 
11.7681 -4.64577 31.2238 12.0225 -4.63217 31.3709 12.2788 -4.64427 31.5155 
12.5381 -4.67194 31.6561 12.8015 -4.70017 31.791 13.0695 -4.7343 31.918 
13.3422 -4.76223 32.0358 13.6192 -4.78049 32.1437 13.8994 -4.79667 32.2413 
14.1815 -4.81286 32.3286 14.4646 -4.83447 32.4063 14.7488 -4.81491 32.477 
15.0356 -4.832 32.5442 15.3255 -4.8445 32.6088 15.6187 -4.85701 32.6699 
15.9144 -4.86952 32.7268 16.2118 -4.87004 32.7798 16.51 -4.87004 32.8312 
1.88913 -3.55479 25.7004 2.15773 -3.55111 25.783 2.42661 -3.54738 25.8649 
2.69557 -3.54723 25.9472 2.96439 -3.57088 26.0314 3.23283 -3.55788 26.1186 
3.50065 -3.57209 26.2099 3.76764 -3.59078 26.306 4.03361 -3.61177 26.4075 
4.29838 -3.63352 26.5148 4.56182 -3.61918 26.628 4.8238 -3.63404 26.7475 
5.08423 -3.65547 26.873 5.34302 -3.6769 27.0046 5.60013 -3.69833 27.142 
5.8555 -3.71854 27.2847 6.1091 -3.74039 27.4323 6.36092 -3.76781 27.5842 
6.61098 -3.79523 27.74 6.85937 -3.82364 27.8991 7.10622 -3.87017 28.0613 
7.35173 -3.86096 28.2261 7.59611 -3.88125 28.3933 7.83955 -3.90842 28.5626 
8.08221 -3.93558 28.7337 8.32426 -3.96274 28.9062 8.56587 -3.99099 29.08 
8.80726 -4.02326 29.2551 9.0488 -4.05993 29.4316 9.29093 -4.0524 29.6092 
9.53418 -4.07536 29.7875 9.77905 -4.10366 29.966 10.0259 -4.13195 30.1435 
10.2751 -4.16025 30.3189 10.5264 -4.18855 30.4912 10.7796 -4.21685 30.6596 
11.0341 -4.24506 30.8233 11.2893 -4.27416 30.9824 11.5445 -4.29637 31.1369 
11.7999 -4.33808 31.2877 12.0559 -4.32538 31.4356 12.3137 -4.33667 31.5806 
12.574 -4.36251 31.721 12.8376 -4.38887 31.8547 13.1048 -4.42075 31.9797 
13.3755 -4.44682 32.0951 13.6494 -4.46387 32.2004 13.9259 -4.47898 32.2957 
14.2042 -4.4941 32.3809 14.4838 -4.51428 32.4571 14.7653 -4.49601 32.5268 
15.0497 -4.51197 32.5933 15.3373 -4.52364 32.6572 15.6278 -4.53532 32.7177 
15.9206 -4.54701 32.7739 16.215 -4.54749 32.8265 16.51 -4.54749 32.8774 
1.88913 -3.30231 25.734 2.15814 -3.29889 25.8169 2.42742 -3.29543 25.899 
2.69676 -3.29529 25.9816 2.96591 -3.31726 26.066 3.23464 -3.30518 26.1535 
3.50269 -3.31838 26.2451 3.76987 -3.33574 26.3415 4.03599 -3.35524 26.4433 
4.30088 -3.37545 26.5509 4.56442 -3.36213 26.6645 4.82649 -3.37593 26.7843 
5.08701 -3.39584 26.9102 5.34592 -3.41575 27.0422 5.60317 -3.43566 27.1799 
5.8587 -3.45443 27.3231 6.11247 -3.47473 27.4711 6.36448 -3.5002 27.6235 
6.61474 -3.52567 27.7797 6.8633 -3.55206 27.9393 7.1103 -3.59529 28.1018 
7.35591 -3.58673 28.267 7.60033 -3.60559 28.4346 7.84374 -3.63082 28.6042 
8.08632 -3.65605 28.7755 8.32824 -3.68129 28.9482 8.56972 -3.70753 29.1222 
8.81106 -3.7375 29.2976 9.05267 -3.77158 29.4743 9.2951 -3.76458 29.6524 
9.53892 -3.78591 29.8315 9.7847 -3.81219 30.0108 10.0328 -3.83848 30.1893 
10.2834 -3.86477 30.3659 10.5363 -3.89106 30.5394 10.7911 -3.91735 30.7087 
11.0471 -3.94355 30.8734 11.3036 -3.97059 31.0332 11.5604 -3.99122 31.1886 
11.8173 -4.02997 31.3404 12.075 -4.01817 31.4893 12.3343 -4.02866 31.6349 
12.5957 -4.05266 31.7754 12.8597 -4.07715 31.9086 13.1265 -4.10676 32.0325 
13.3961 -4.13098 32.1463 13.6681 -4.14682 32.25 13.9422 -4.16086 32.3437 
14.2181 -4.1749 32.4276 14.4956 -4.19365 32.5028 14.7753 -4.17668 32.5719 
15.0582 -4.1915 32.638 15.3443 -4.20235 32.7015 15.6332 -4.2132 32.7616 
15.9243 -4.22405 32.8175 16.2168 -4.2245 32.8697 16.51 -4.2245 32.9204 
1.88913 -3.04951 25.7652 2.15828 -3.04635 25.8482 2.42769 -3.04316 25.9304 
2.69713 -3.04303 26.0132 2.96637 -3.06332 26.0978 3.23514 -3.05216 26.1855 
3.50322 -3.06435 26.2773 3.77038 -3.08039 26.3739 4.03646 -3.09839 26.4759 
4.30129 -3.11706 26.5836 4.56474 -3.10475 26.6974 4.82672 -3.11749 26.8174 
5.08716 -3.13588 26.9435 5.34597 -3.15427 27.0756 5.60313 -3.17265 27.2135 
5.85857 -3.18999 27.3568 6.11226 -3.20873 27.505 6.36415 -3.23226 27.6576 
6.61425 -3.25578 27.8139 6.86261 -3.28014 27.9736 7.10933 -3.32007 28.1362 
7.35456 -3.31216 28.3014 7.59847 -3.32957 28.4688 7.84123 -3.35287 28.6382 
8.083 -3.37618 28.809 8.32399 -3.39948 28.9813 8.56444 -3.42371 29.1548 
8.80472 -3.45139 29.3295 9.04537 -3.48285 29.5058 9.28707 -3.47639 29.6835 
9.5306 -3.49609 29.8626 9.7767 -3.52036 30.0424 10.0259 -3.54464 30.2221 
10.2783 -3.56891 30.4004 10.5335 -3.59319 30.5758 10.7907 -3.61747 30.747 
11.0491 -3.64166 30.9133 11.3078 -3.66663 31.0746 11.5665 -3.68568 31.2313 
11.8253 -3.72146 31.3842 12.0848 -3.71057 31.5342 12.3456 -3.72026 31.6806 
12.6082 -3.74242 31.8216 12.8728 -3.76503 31.9547 13.1396 -3.79238 32.0781 
13.4086 -3.81475 32.1909 13.6794 -3.82937 32.2936 13.9521 -3.84234 32.3863 
14.2265 -3.85531 32.4695 14.5027 -3.87262 32.5441 14.7813 -3.85695 32.6129 
15.0632 -3.87064 32.6787 15.3484 -3.88065 32.742 15.6364 -3.89067 32.8018 
15.9265 -3.90069 32.8575 16.218 -3.90111 32.9097 16.51 -3.90111 32.9603 
1.88913 -2.79642 25.7939 2.15834 -2.79352 25.877 2.4278 -2.79059 25.9594 
2.69729 -2.79047 26.0422 2.96655 -2.80908 26.127 3.23532 -2.79885 26.2148 
3.50338 -2.81003 26.3067 3.77051 -2.82473 26.4034 4.03654 -2.84124 26.5056 
4.30131 -2.85836 26.6135 4.56471 -2.84707 26.7274 4.82664 -2.85876 26.8475 
5.08703 -2.87562 26.9738 5.34583 -2.89248 27.1061 5.60299 -2.90934 27.2442 
5.85845 -2.92524 27.3877 6.11217 -2.94243 27.5362 6.36411 -2.964 27.6889 
6.61425 -2.98556 27.8455 6.86265 -3.00791 28.0054 7.10939 -3.04452 28.1682 
7.35461 -3.03727 28.3336 7.59849 -3.05324 28.5013 7.84119 -3.07461 28.6708 
8.0829 -3.09597 28.8419 8.32386 -3.11734 29.0143 8.56437 -3.13956 29.1881 
8.80488 -3.16495 29.3633 9.046 -3.1938 29.5401 9.28846 -3.18787 29.7186 
9.533 -3.20593 29.8987 9.78024 -3.22819 30.0795 10.0305 -3.25045 30.2599 
10.2836 -3.27271 30.4386 10.5393 -3.29498 30.6142 10.7968 -3.31724 30.7855 
11.0553 -3.33943 30.9519 11.3144 -3.36232 31.1133 11.5736 -3.37979 31.2702 
11.833 -3.4126 31.4234 12.0931 -3.40261 31.5737 12.3544 -3.4115 31.7203 
12.6174 -3.43182 31.8614 12.8822 -3.45256 31.9943 13.1488 -3.47763 32.1174 
13.4172 -3.49814 32.2298 13.6872 -3.51156 32.332 13.9589 -3.52345 32.4243 
14.2322 -3.53534 32.5069 14.5074 -3.55121 32.5813 14.7853 -3.53684 32.65 
15.0666 -3.5494 32.7157 15.3512 -3.55858 32.7789 15.6385 -3.56777 32.8386 
15.9279 -3.57696 32.8943 16.2187 -3.57734 32.9464 16.51 -3.57734 32.997 
1.88913 -2.54306 25.8201 2.15836 -2.54042 25.9033 2.42784 -2.53776 25.9857 
2.69733 -2.53765 26.0687 2.96658 -2.55457 26.1535 3.23534 -2.54527 26.2414 
3.50336 -2.55543 26.3335 3.77046 -2.5688 26.4303 4.03644 -2.58382 26.5326 
4.30118 -2.59939 26.6406 4.56455 -2.58912 26.7547 4.82648 -2.59975 26.8749 
5.08689 -2.61509 27.0013 5.34575 -2.63042 27.1338 5.60301 -2.64575 27.2722 
5.85862 -2.66021 27.4159 6.11252 -2.67584 27.5647 6.36468 -2.69545 27.7177 
6.61508 -2.71507 27.8747 6.86375 -2.73539 28.0349 7.11079 -2.76868 28.1981 
7.35633 -2.76209 28.3639 7.60052 -2.77661 28.5319 7.84354 -2.79604 28.7019 
8.08557 -2.81547 28.8733 8.3268 -2.8349 29.0461 8.5675 -2.85511 29.2202 
8.80809 -2.87819 29.3955 9.0491 -2.90443 29.5724 9.29124 -2.89904 29.7508 
9.53531 -2.91547 29.9305 9.78204 -2.93571 30.111 10.0319 -2.95595 30.2913 
10.2851 -2.9762 30.4702 10.541 -2.99644 30.6462 10.799 -3.01669 30.8179 
11.058 -3.03687 30.9847 11.3174 -3.05769 31.1465 11.577 -3.07357 31.3037 
11.8369 -3.10342 31.4573 12.0976 -3.09433 31.6079 12.3594 -3.10241 31.7549 
12.6228 -3.12089 31.8961 12.8878 -3.13975 32.029 13.1544 -3.16255 32.152 
13.4224 -3.18121 32.2643 13.692 -3.1934 32.3662 13.963 -3.20422 32.4582 
14.2356 -3.21503 32.5407 14.5103 -3.22946 32.6149 14.7877 -3.2164 32.6835 
[...]
CELL_DATA 1792
POINT_DATA 1881
SCALARS Density float
LOOKUP_TABLE default
0.639897 0.239841 0.252319 0.255393 0.252118 0.246661 0.240134 0.234116 0.229199 
0.225886 0.224268 0.224647 0.231496 0.246895 0.26417 0.27585 0.278987 0.274621 
0.265669 0.255193 0.24454 0.235427 0.228925 0.224122 0.220709 0.218351 0.216868 
0.216104 0.216121 0.217164 0.2194 0.223062 0.227798 0.232998 0.238221 0.243001 
0.247388 0.251558 0.254975 0.258194 0.261479 0.264172 0.26656 0.268796 0.270925 
0.272974 0.274965 0.276818 0.278506 0.280184 0.281828 0.283415 0.285011 0.286558 
0.288043 0.289438 0.290104 0.639897 0.260692 0.27895 0.279638 0.271931 0.262169 
0.251375 0.241648 0.233684 0.227845 0.224012 0.2216 0.221825 0.226359 0.23359 
0.239897 0.243177 0.243049 0.240136 0.236327 0.231671 0.22691 0.223727 0.221619 
0.220241 0.219434 0.219121 0.219266 0.220176 0.222465 0.226866 0.234016 0.242647 
0.25078 0.257457 0.262459 0.266155 0.269114 0.270904 0.272629 0.274834 0.276223 
0.277255 0.278288 0.279405 0.28071 0.282118 0.28347 0.284663 0.286031 0.287485 
0.288759 0.290059 0.291334 0.292609 0.293866 0.294472 0.639897 0.297426 0.314985 
0.308704 0.294223 0.278506 0.262854 0.249459 0.238836 0.230959 0.225352 0.221242 
0.2185 0.217623 0.218542 0.220196 0.221606 0.222243 0.221946 0.221532 0.220616 
0.219373 0.218971 0.219085 0.219429 0.219917 0.220639 0.221745 0.223795 0.228278 
0.237897 0.253787 0.271031 0.28378 0.290922 0.293884 0.294272 0.2935 0.291719 
0.290549 0.290553 0.290086 0.289603 0.289349 0.289344 0.289709 0.290345 0.291092 
0.2918 0.2929 0.294182 0.295207 0.296277 0.297341 0.298449 0.299574 0.300112 
0.639897 0.350923 0.356856 0.33862 0.314528 0.291146 0.270353 0.25382 0.241409 
0.232372 0.225846 0.220992 0.217248 0.214475 0.21272 0.211835 0.211618 0.211847 
0.212286 0.213173 0.214108 0.214911 0.216129 0.21754 0.218857 0.220135 0.221577 
0.223446 0.226819 0.23511 0.254493 0.287428 0.320333 0.336542 0.337501 0.331743 
0.323675 0.316361 0.31016 0.305632 0.303059 0.301032 0.299623 0.29878 0.298381 
0.298449 0.298865 0.299463 0.300077 0.30114 0.30238 0.303297 0.304202 0.305055 
0.30592 0.306763 0.307148 0.639897 0.418748 0.40121 0.365455 0.328222 0.296054 
0.270936 0.252758 0.239977 0.230903 0.22435 0.219517 0.215696 0.212567 0.21015 
0.208565 0.207849 0.207928 0.208683 0.210014 0.211631 0.213242 0.215038 0.216897 
0.218566 0.220207 0.221982 0.22432 0.229206 0.242774 0.276738 0.339649 0.404398 
0.411415 0.380328 0.358513 0.34144 0.328613 0.319617 0.313473 0.309603 0.30711 
0.305662 0.304955 0.304748 0.304932 0.30539 0.306015 0.306714 0.307642 0.308632 
0.309424 0.310128 0.31073 0.311254 0.311668 0.311832 0.657528 0.496132 0.441918 
0.382397 0.330477 0.291644 0.264975 0.247265 0.235467 0.227275 0.221339 0.216969 
0.213517 0.210687 0.208536 0.207235 0.206818 0.207155 0.208132 0.209591 0.211291 
0.213038 0.214886 0.216697 0.21838 0.220076 0.221864 0.224353 0.230186 0.247693 
0.295447 0.388377 0.471554 0.456266 0.396392 0.364731 0.344307 0.330019 0.320644 
0.314187 0.309563 0.306685 0.305055 0.304276 0.304069 0.304165 0.304451 0.304908 
0.305552 0.306109 0.306653 0.307354 0.308001 0.308594 0.309063 0.309364 0.309479 
0.692789 0.547147 0.456974 0.377853 0.319389 0.280345 0.255539 0.239889 0.229782 
0.222841 0.21778 0.214052 0.211232 0.209195 0.207989 0.207579 0.207789 0.208451 
0.209445 0.21071 0.212124 0.213676 0.21531 0.216815 0.218296 0.219802 0.221386 
0.223614 0.228694 0.243437 0.283331 0.355288 0.410056 0.399779 0.365405 0.34472 
0.330158 0.319226 0.311728 0.306012 0.301361 0.298498 0.296856 0.296054 0.295831 
0.295855 0.296027 0.296372 0.296962 0.297343 0.297735 0.298528 0.299346 0.300176 
0.300896 0.301455 0.301711 0.710419 0.549425 0.440636 0.356573 0.301685 0.267109 
0.245792 0.232677 0.224318 0.218592 0.214428 0.211512 0.209847 0.209611 0.210444 
0.211497 0.212213 0.212672 0.213103 0.213593 0.214332 0.215352 0.216407 0.217426 
0.218532 0.219675 0.220895 0.222547 0.225757 0.23365 0.25262 0.280799 0.302504 
0.309574 0.307802 0.303413 0.298773 0.294314 0.290997 0.288076 0.285323 0.283959 
0.283433 0.283459 0.283875 0.284383 0.284924 0.285554 0.28637 0.286951 0.287552 
0.288578 0.289655 0.290762 0.291773 0.292641 0.293057 0.710419 0.533009 0.416836 
0.335629 0.286167 0.255947 0.237704 0.226681 0.219732 0.215022 0.211778 0.210152 
0.211091 0.215238 0.220388 0.223368 0.223576 0.222277 0.220711 0.219328 0.218599 
0.218513 0.218595 0.218883 0.219382 0.219992 0.220706 0.221699 0.223407 0.226963 
0.23477 0.246037 0.255925 0.261938 0.264905 0.266198 0.266766 0.266977 0.267462 
0.26756 0.267258 0.267755 0.268686 0.269845 0.271137 0.272341 0.273442 0.27451 
0.275656 0.27659 0.277538 0.278822 0.280189 0.281618 0.282935 0.284099 0.284659 
0.710419 0.516579 0.396691 0.320439 0.275533 0.248254 0.231987 0.222289 0.216295 
0.212412 0.210195 0.210752 0.217437 0.231991 0.246058 0.250608 0.247016 0.240342 
0.233999 0.228885 0.225379 0.223342 0.222 0.221188 0.220795 0.220672 0.22074 
0.221051 0.221714 0.223158 0.226137 0.230471 0.235032 0.238852 0.241745 0.244117 
0.246299 0.248274 0.250283 0.251941 0.253224 0.254848 0.256652 0.258515 0.260374 
0.262091 0.263646 0.265093 0.266524 0.267767 0.268982 0.270383 0.271822 0.273285 
0.274634 0.27589 0.27652 0.710419 0.502912 0.383015 0.311853 0.269915 0.244138 
0.228742 0.219641 0.214155 0.210885 0.209748 0.21331 0.229559 0.2649 0.295739 
0.297386 0.281509 0.264263 0.250401 0.240071 0.232943 0.228269 0.224979 0.222798 
0.221344 0.220364 0.219737 0.219435 0.219401 0.219887 0.221317 0.223659 0.226458 
0.229272 0.231911 0.234372 0.236771 0.239078 0.241391 0.243534 0.245451 0.247434 
0.249442 0.251441 0.25341 0.255288 0.257062 0.258743 0.260364 0.261822 0.26321 
0.26466 0.266061 0.267409 0.268661 0.269851 0.270448 0.710419 0.497376 0.378926 
0.310009 0.269032 0.243503 0.228047 0.218874 0.213439 0.210424 0.209932 0.215402 
0.238274 0.291958 0.338265 0.334928 0.305932 0.279027 0.258857 0.244609 0.234781 
0.228001 0.223319 0.220212 0.218127 0.216706 0.215811 0.215397 0.215406 0.216135 
0.218103 0.22113 0.224566 0.227945 0.230976 0.233619 0.23604 0.238347 0.240551 
0.242647 0.244635 0.246498 0.248273 0.249985 0.251655 0.253298 0.254915 0.256484 
0.257988 0.259424 0.260822 0.262207 0.263549 0.26484 0.266059 0.267192 0.267737 
0.710419 0.501805 0.383655 0.314188 0.272475 0.246148 0.229879 0.220023 0.214157 
0.210916 0.210175 0.214647 0.233931 0.279819 0.320577 0.319595 0.295078 0.270425 
0.251141 0.237447 0.227865 0.221103 0.216614 0.21371 0.211865 0.210757 0.210252 
0.21036 0.211225 0.213598 0.218704 0.2257 0.23206 0.236783 0.240106 0.242507 
0.244458 0.24621 0.247721 0.249143 0.25059 0.251877 0.253088 0.254265 0.255437 
0.256633 0.257834 0.25901 0.260142 0.261297 0.262465 0.263595 0.264706 0.265783 
0.266819 0.267799 0.268271 0.710419 0.513776 0.396323 0.323827 0.279734 0.251626 
0.233904 0.222889 0.216158 0.212217 0.21052 0.212212 0.222238 0.245223 0.266865 
0.270169 0.259838 0.246083 0.233734 0.22436 0.217583 0.212679 0.209476 0.207491 
0.206334 0.205821 0.205926 0.20692 0.209409 0.215553 0.229092 0.246392 0.258328 
0.26325 0.264334 0.263768 0.262791 0.261958 0.261324 0.261023 0.261073 0.261222 
0.261512 0.261941 0.262484 0.263134 0.263851 0.264595 0.265342 0.266174 0.267061 
0.267923 0.268789 0.269661 0.270584 0.271506 0.271946 0.710419 0.530514 0.416919 
0.339249 0.290435 0.259303 0.239507 0.22699 0.219103 0.214184 0.211323 0.210473 
0.21323 0.221022 0.229225 0.231826 0.228947 0.223481 0.217662 0.212794 0.209077 
0.20632 0.204524 0.203473 0.203001 0.203024 0.203671 0.205682 0.210767 0.224123 
0.255053 0.295838 0.318048 0.3157 0.305234 0.294875 0.286573 0.280666 0.276377 
0.273319 0.271355 0.270144 0.269501 0.269301 0.269421 0.269779 0.270296 0.270946 
0.271687 0.272542 0.273463 0.274354 0.275229 0.276089 0.276977 0.277831 0.278227 
0.692789 0.533147 0.43428 0.355212 0.302134 0.267882 0.245811 0.23166 0.222535 
0.216567 0.212665 0.210228 0.209342 0.210345 0.212114 0.212775 0.211848 0.209883 
0.207556 0.205488 0.203877 0.202644 0.201822 0.201444 0.2015 0.201959 0.203032 
0.205873 0.213621 0.23601 0.294637 0.386063 0.416916 0.37597 0.339548 0.316653 
0.301985 0.292201 0.285475 0.28068 0.277612 0.275866 0.275071 0.274947 0.275266 
0.27587 0.276654 0.277585 0.27862 0.279739 0.280865 0.281901 0.282849 0.283696 
0.284437 0.285042 0.285304 0.657528 0.49782 0.431056 0.362972 0.310925 0.275455 
0.251819 0.236273 0.226014 0.219099 0.214332 0.210984 0.208631 0.207174 0.206387 
0.2057 0.204867 0.20385 0.202791 0.201958 0.201356 0.200951 0.20073 0.200788 
0.201204 0.201924 0.203199 0.206253 0.214442 0.238677 0.306013 0.420186 0.456695 
0.395806 0.345623 0.318146 0.302207 0.291812 0.284695 0.279729 0.276768 0.275299 
0.274907 0.275245 0.276081 0.277239 0.278553 0.279943 0.281375 0.28284 0.284257 
0.285535 0.286668 0.287646 0.288467 0.289095 0.289353 0.639897 0.43582 0.407237 
0.35892 0.314096 0.280363 0.25657 0.240284 0.229198 0.221541 0.216117 0.212167 
0.209189 0.206908 0.20517 0.203799 0.202678 0.201753 0.201057 0.200626 0.20042 
0.200434 0.200596 0.201014 0.201711 0.202555 0.203854 0.206465 0.212617 0.229487 
0.273399 0.345369 0.379026 0.354655 0.325433 0.306164 0.293445 0.284614 0.27825 
0.2738 0.271207 0.270009 0.269771 0.270198 0.271091 0.27229 0.273632 0.275031 
0.276474 0.278089 0.279807 0.281443 0.28298 0.284389 0.285651 0.286716 0.287188 
0.639897 0.372537 0.373421 0.344754 0.310779 0.281632 0.259334 0.243222 0.23182 
0.223711 0.217847 0.213506 0.210177 0.207539 0.205412 0.203698 0.202336 0.201348 
0.200697 0.200384 0.200408 0.200648 0.201079 0.201789 0.202656 0.203637 0.204968 
0.206963 0.210741 0.219594 0.239724 0.269104 0.289744 0.293531 0.289243 0.283415 
0.278113 0.273688 0.270174 0.2676 0.266016 0.265238 0.265069 0.265371 0.265995 
0.266827 0.267774 0.268774 0.269816 0.27107 0.272508 0.273958 0.275404 0.276897 
0.278435 0.279867 0.280536 0.639897 0.318776 0.337087 0.324635 0.301906 0.279045 
0.25971 0.244753 0.23364 0.225464 0.219404 0.214855 0.211326 0.208498 0.206175 
0.204257 0.202771 0.201731 0.201061 0.200801 0.200956 0.201315 0.201949 0.202859 
0.203852 0.205035 0.206403 0.208001 0.210368 0.214686 0.223359 0.235722 0.24657 
0.253294 0.256952 0.25879 0.259649 0.260027 0.260097 0.260137 0.260324 0.2606 
0.261023 0.261597 0.26229 0.26307 0.263894 0.264725 0.265548 0.266455 0.267465 
0.268521 0.269617 0.270808 0.272096 0.273346 0.273946 0.639897 0.278875 0.30281 
0.301757 0.288849 0.272836 0.257497 0.244597 0.234424 0.226615 0.220654 0.216077 
0.2125 0.20961 0.207205 0.205243 0.203752 0.202717 0.202069 0.20181 0.201981 
0.202379 0.203071 0.204018 0.205127 0.206468 0.207829 0.209319 0.211204 0.213803 
0.217944 0.223658 0.229546 0.234713 0.239053 0.24263 0.245674 0.248293 0.250397 
0.252184 0.253838 0.255285 0.256577 0.25777 0.258897 0.259963 0.260954 0.261863 
0.262702 0.263567 0.2645 0.265468 0.266468 0.267471 0.26846 0.269412 0.269873 
0.639897 0.253903 0.274072 0.278843 0.273379 0.2637 0.252775 0.242587 0.233949 
0.226963 0.221404 0.217024 0.213564 0.210784 0.208562 0.206843 0.205561 0.204622 
0.204002 0.203692 0.203673 0.203904 0.204437 0.205184 0.206231 0.207568 0.20888 
0.210349 0.212134 0.21425 0.21703 0.220561 0.22444 0.22833 0.232011 0.235439 
0.238682 0.241702 0.244401 0.246849 0.249114 0.251143 0.252971 0.254635 0.256145 
0.257526 0.258765 0.259855 0.260825 0.261765 0.262733 0.263719 0.264718 0.265706 
0.266668 0.267584 0.268027 0.639897 0.24184 0.254872 0.260154 0.258727 0.253573 
0.246491 0.239107 0.232295 0.226424 0.22154 0.21758 0.214489 0.212285 0.210987 
0.210245 0.20962 0.208857 0.208012 0.207264 0.206575 0.20615 0.206143 0.206378 
0.207053 0.208121 0.209255 0.21057 0.212267 0.214421 0.217163 0.220463 0.22399 
0.227494 0.230846 0.234022 0.237035 0.239849 0.2425 0.244974 0.247239 0.249331 
0.251283 0.253094 0.254728 0.256227 0.257594 0.258801 0.259879 0.260905 0.261947 
0.263017 0.264095 0.265156 0.266176 0.267132 0.26759 0.639897 0.244891 0.251515 
0.252129 0.249903 0.245951 0.240926 0.235515 0.230229 0.225405 0.221271 0.21795 
0.216012 0.21631 0.218287 0.220003 0.220219 0.218881 0.216557 0.214128 0.211751 
0.209744 0.208532 0.207882 0.207843 0.20832 0.209065 0.210083 0.211741 0.214591 
0.218798 0.223516 0.227716 0.231207 0.234221 0.236929 0.239362 0.241547 0.243629 
0.245579 0.24739 0.249203 0.250995 0.252738 0.254367 0.255907 0.257361 0.258681 
0.259907 0.261065 0.26224 0.263481 0.264729 0.265955 0.267118 0.268183 0.26869 
0.639897 0.333641 0.296833 0.269794 0.254803 0.245744 0.239469 0.234148 0.229371 
0.225047 0.221433 0.219313 0.221674 0.230099 0.239663 0.244509 0.243535 0.238549 
0.23182 0.225521 0.219929 0.215282 0.212244 0.210326 0.209279 0.208941 0.209144 
0.209971 0.212246 0.217929 0.227782 0.237342 0.24268 0.244944 0.245933 0.246493 
0.246937 0.247368 0.247975 0.248636 0.249381 0.250562 0.252034 0.253635 0.255309 
0.256988 0.258599 0.26012 0.261606 0.262982 0.264352 0.265834 0.267303 0.268731 
0.270095 0.271375 0.271992 0.639897 0.422942 0.361916 0.312184 0.278926 0.258086 
0.246041 0.237954 0.231882 0.226869 0.223308 0.224732 0.238536 0.263303 0.283866 
0.289126 0.281016 0.266906 0.252141 0.239899 0.230129 0.222534 0.21755 0.214298 
0.212257 0.211139 0.210834 0.211808 0.216512 0.231807 0.262199 0.286772 0.290006 
0.282948 0.274509 0.267729 0.262872 0.259506 0.257356 0.25587 0.254919 0.255122 
0.256121 0.257539 0.25922 0.260964 0.262666 0.264342 0.266049 0.2676 0.269142 
0.270882 0.27265 0.274398 0.276022 0.277488 0.27818 0.639897 0.459748 0.402454 
0.357116 0.315663 0.283464 0.262727 0.248984 0.239365 0.231932 0.228043 0.236799 
0.269361 0.317892 0.351127 0.349398 0.325079 0.29684 0.272334 0.254148 0.240897 
0.231099 0.224693 0.220492 0.217639 0.215801 0.214973 0.216337 0.226592 0.268965 
0.369742 0.440866 0.408858 0.353257 0.320132 0.298576 0.285584 0.27711 0.271405 
0.267387 0.264701 0.263741 0.263892 0.264701 0.265896 0.267245 0.268685 0.270253 
0.271955 0.27365 0.275392 0.277231 0.279059 0.280838 0.282456 0.283845 0.284476 
0.639897 0.502483 0.422306 0.379402 0.340138 0.307178 0.281988 0.263541 0.249971 
0.239334 0.234864 0.251663 0.30301 0.381638 0.42988 0.409684 0.362377 0.32093 
0.288418 0.26599 0.250711 0.23985 0.232592 0.227586 0.224 0.221582 0.220177 
0.220901 0.231749 0.28474 0.415891 0.543901 0.531797 0.429293 0.357384 0.323515 
0.303622 0.290861 0.282122 0.275898 0.271898 0.269743 0.26878 0.268595 0.268946 
0.269667 0.270664 0.271894 0.27328 0.274965 0.276855 0.278669 0.280418 0.282078 
0.283654 0.285087 0.285745 0.639897 0.398275 0.357178 0.333922 0.313524 0.296833 
0.280733 0.266784 0.254975 0.244505 0.240003 0.2599 0.317896 0.408123 0.467551 
0.442995 0.385045 0.337952 0.300687 0.274588 0.256963 0.244818 0.236494 0.230558 
0.226302 0.223369 0.221429 0.220867 0.226145 0.256701 0.332624 0.43479 0.467712 
0.408443 0.350431 0.321314 0.301804 0.288691 0.279377 0.273002 0.269191 0.266778 
0.265496 0.265055 0.265236 0.265902 0.266899 0.268085 0.269361 0.270942 0.272729 
0.27444 0.27626 0.278168 0.280048 0.281821 0.282654 0.639897 0.260112 0.266254 
0.265364 0.263319 0.261737 0.257973 0.2534 0.248372 0.242778 0.239826 0.25672 
0.306895 0.379762 0.433461 0.428687 0.388122 0.345714 0.308459 0.279924 0.259463 
0.245278 0.235505 0.228584 0.223662 0.220215 0.217909 0.216747 0.218351 0.229382 
0.257631 0.292604 0.310662 0.307681 0.29633 0.284806 0.275535 0.268914 0.264024 
0.261092 0.259855 0.259239 0.259323 0.260002 0.261105 0.262456 0.263937 0.265467 
0.267022 0.268602 0.270212 0.271866 0.273733 0.275823 0.277888 0.279815 0.280731 
0.639897 0.233874 0.237989 0.239724 0.239996 0.239876 0.238963 0.237854 0.236638 
0.2354 0.234765 0.245464 0.280631 0.331655 0.371711 0.382157 0.365793 0.336617 
0.3064 0.280137 0.259478 0.244461 0.233823 0.226303 0.220998 0.217266 0.214826 
0.213428 0.213387 0.216366 0.223949 0.234019 0.241762 0.24563 0.247193 0.247834 
0.248313 0.249055 0.249966 0.251254 0.253014 0.25487 0.256893 0.259062 0.261266 
0.263343 0.265264 0.267044 0.26877 0.270352 0.271925 0.273736 0.275696 0.277728 
0.279678 0.281462 0.282313 0.639897 0.231033 0.23756 0.240326 0.239491 0.237122 
0.234103 0.23137 0.229297 0.228272 0.228261 0.232885 0.251833 0.283787 0.312828 
0.326967 0.324164 0.309825 0.29097 0.271816 0.254858 0.241777 0.232303 0.22541 
0.220528 0.21705 0.214777 0.213459 0.21308 0.213963 0.216447 0.220326 0.224666 
0.228897 0.232894 0.236626 0.240303 0.243934 0.247261 0.250514 0.253769 0.25679 
0.259693 0.262445 0.26499 0.267265 0.269338 0.271244 0.273056 0.274753 0.276408 
0.278241 0.280129 0.281958 0.283674 0.285238 0.285983 0.639897 0.239841 0.252319 
0.255394 0.252118 0.246661 0.240134 0.234117 0.2292 0.225887 0.224268 0.224648 
0.231496 0.246895 0.26417 0.27585 0.278987 0.274621 0.265669 0.255193 0.24454 
0.235427 0.228925 0.224122 0.220709 0.218351 0.216868 0.216103 0.216121 0.217164 
0.219399 0.223062 0.227798 0.232998 0.238221 0.243001 0.247388 0.251558 0.254975 
0.258194 0.261479 0.264172 0.26656 0.268796 0.270925 0.272974 0.274965 0.276818 
0.278506 0.280184 0.281828 0.283415 0.285011 0.286558 0.288043 0.289438 0.290103 

VECTORS Momentum float
0 0 0 13.753 -5.32483 -19.964 42.3106 -15.57 -43.0034 
64.2447 -13.3958 -46.2281 73.7861 -4.83205 -36.3829 88.3374 6.23797 -22.8846 
91.8729 16.8745 -9.42421 92.2818 25.6889 5.36896 90.7787 32.696 20.4258 
87.9758 39.0543 39.2799 98.3787 44.0844 54.7329 101.901 52.0173 63.3732 
104.956 74.6431 67.5394 106.313 107.945 61.6389 106.373 134.78 48.1319 
106.337 148.008 31.792 105.561 150.497 15.2162 103.016 146.689 1.0906 
101.551 140.037 -10.1664 100.631 132.365 -20.5856 92.1802 124.549 -23.2305 
106.242 118.478 -26.443 107.893 113.686 -35.1109 109.152 109.075 -39.4398 
112.064 105.483 -41.9105 116.425 102.835 -44.0113 121.965 100.854 -46.2591 
127.553 99.0232 -47.1412 131.576 98.1445 -42.042 161.168 97.8284 -43.643 
178.732 95.78 -53.926 197.454 92.0207 -60.5767 216.167 87.4063 -65.0929 
231.091 82.3432 -67.4331 241.405 77.7007 -67.7875 248.184 74.4011 -66.8621 
252.713 72.6801 -65.0876 254.711 72.3062 -61.5785 261.716 72.5045 -59.4375 
249.788 75.2994 -45.6649 280.532 79.9327 -36.8054 292.563 82.3301 -46.7921 
296.188 82.8474 -52.0181 302.093 82.0554 -52.9118 302.965 79.3937 -49.7436 
306.308 75.6201 -41.6517 313.555 71.3759 -35.2145 318.92 66.4331 -32.3742 
321.282 60.9432 -30.1852 314.126 56.9354 -18.0811 339.688 52.1672 -16.6411 
332.458 45.4538 -25.0851 331.1 39.4407 -23.1797 328.773 33.6203 -20.5145 
323.117 28.5797 -14.1409 323.287 24.5254 -7.77246 323.286 22.6064 -6.11938 
0 0 0 30.7617 -14.5233 -38.0263 62.434 -24.997 -59.8077 
82.0594 -20.5834 -58.2815 91.6917 -10.5628 -46.2385 99.9334 0.990907 -30.2069 
101.495 12.145 -13.1514 100.57 21.4682 3.80825 98.6568 29.1437 19.9534 
97.45 35.6476 36.0842 103.243 40.5893 49.414 109.401 45.71 57.923 
117.625 57.2828 61.1155 125.312 75.9342 56.171 130.426 93.8269 44.3777 
133.155 105.257 29.3491 133.628 110.194 13.8217 132.227 110.478 -0.193707 
130.576 107.639 -11.924 128.028 103.875 -21.5414 124.619 98.5632 -27.4837 
129.614 92.3999 -32.6138 130.123 87.5319 -38.5943 130.206 83.3317 -42.8496 
131.132 79.8496 -46.0472 133.031 77.0361 -48.934 135.884 74.7184 -51.8637 
139.795 72.973 -54.5132 146.799 70.5327 -57.5283 161.161 67.1095 -64.5328 
173.842 65.0786 -74.6198 188.675 65.9628 -82.4407 204.496 67.8345 -84.9998 
217.289 68.0404 -82.3932 225.849 66.8768 -77.3175 231.434 65.7653 -71.82 
235.301 65.5076 -66.5779 238.42 66.3438 -61.3692 242.702 67.9689 -56.2314 
246.769 71.5739 -49.7327 259.284 76.0405 -46.2843 268.226 78.6494 -47.7145 
275.582 79.7913 -48.3479 282.889 79.4177 -47.2676 288.871 77.3893 -44.2266 
294.971 74.4127 -39.5972 301.278 70.8543 -35.3119 306.378 66.7102 -31.9442 
310 62.036 -28.4913 312.322 58.1772 -23.9237 320.61 53.8237 -22.4364 
320.652 48.2055 -23.1238 320.791 42.8544 -21.5773 320.188 37.4028 -18.8885 
318.176 32.5099 -14.9417 316.771 28.5459 -10.9742 316.768 26.7166 -9.33687 
0 0 0 48.4848 -29.0867 -58.9684 81.4839 -36.0852 -74.1631 
98.9056 -27.9225 -67.9865 105.43 -15.2966 -52.81 107.913 -2.2844 -34.1626 